 Gaussian 16, Revision C.01,
 Gaussian 16:  ES64L-G16RevC.01  3-Jul-2019

 ----------------------------------------------
 # opt rhf/3-21g guess=tcheck geom=connectivity
 ----------------------------------------------

 -----------------------------
 Geometry Optimization for LiH
 -----------------------------
 Symbolic Z-matrix:
 Charge =  0 Multiplicity = 1

 SCF Done:  E(RHF) =  -7.92819770402     A.U. after    9 cycles
 SCF Done:  E(RHF) =  -7.92974465816     A.U. after    7 cycles
 SCF Done:  E(RHF) =  -7.92984258604     A.U. after    7 cycles
 Optimization completed.
    -- Stationary point found.

                         Standard orientation:
 ---------------------------------------------------------------------
 Center     Atomic      Atomic             Coordinates (Angstroms)
 Number     Number       Type             X           Y           Z
 ---------------------------------------------------------------------
      1          3           0        0.000000    0.000000    0.410028
      2          1           0        0.000000    0.000000   -1.230085
 ---------------------------------------------------------------------

 The electronic state is 1-SG.
 Alpha  occ. eigenvalues --   -2.42860  -0.29652
 Alpha virt. eigenvalues --    0.00244   0.04905   0.04905   0.13050   0.18491
 Alpha virt. eigenvalues --    0.22030   0.22030   0.36194   1.44243

 Mulliken charges:
               1
     1  Li   0.221758
     2  H   -0.221758
 Sum of Mulliken charges =  -0.00000

 Dipole moment (field-independent basis, Debye):
    X=              0.0000    Y=              0.0000    Z=              5.9887  Tot=              5.9887
 Quadrupole moment (field-independent basis, Debye-Ang):
   XX=             -5.6367   YY=             -5.6367   ZZ=             -7.1896
   XY=              0.0000   XZ=              0.0000   YZ=              0.0000

 Normal termination of Gaussian 16 at Mon Feb 10 19:53:09 2020.
