 Gaussian 16, Revision C.01,
 Gaussian 16:  ES64L-G16RevC.01  3-Jul-2019

 -----------------------------------------------
 # scan rhf/3-21g guess=tcheck geom=connectivity
 -----------------------------------------------

 -----------------------------------
 Rigid Potential Energy Scan for LiH
 -----------------------------------
 Symbolic Z-matrix:
 Charge =  0 Multiplicity = 1

 SCF Done:  E(RHF) =  -7.09811362372     A.U. after   11 cycles

 The electronic state is 1-SG.
 Alpha  occ. eigenvalues --   -2.87538  -0.27330
 Alpha virt. eigenvalues --   -0.00237   0.04564   0.04564   0.10799   0.15893
 Alpha virt. eigenvalues --    0.17682   0.17682   0.92624   1.22393

 Mulliken charges:
               1
     1  Li  -0.649240
     2  H    0.649240
 Sum of Mulliken charges =  -0.00000

 Dipole moment (field-independent basis, Debye):
    X=              0.0000    Y=              0.0000    Z=              5.0847  Tot=              5.0847
 Quadrupole moment (field-independent basis, Debye-Ang):
   XX=             -7.0525   YY=             -7.0525   ZZ=             -7.9541
   XY=              0.0000   XZ=              0.0000   YZ=              0.0000

 SCF Done:  E(RHF) =  -7.36578647786     A.U. after   10 cycles
 SCF Done:  E(RHF) =  -7.54754683823     A.U. after   10 cycles
 SCF Done:  E(RHF) =  -7.67300882564     A.U. after    9 cycles
 SCF Done:  E(RHF) =  -7.76021104230     A.U. after    8 cycles
 SCF Done:  E(RHF) =  -7.82079534919     A.U. after    8 cycles
 SCF Done:  E(RHF) =  -7.86253163946     A.U. after    8 cycles
 SCF Done:  E(RHF) =  -7.89077548402     A.U. after    8 cycles
 SCF Done:  E(RHF) =  -7.90929520643     A.U. after    8 cycles
 SCF Done:  E(RHF) =  -7.92076367515     A.U. after    8 cycles
 SCF Done:  E(RHF) =  -7.71535351511     A.U. after    7 cycles
 SCF Done:  E(RHF) =  -7.71502148010     A.U. after    7 cycles
 SCF Done:  E(RHF) =  -7.71469808541     A.U. after    7 cycles
 SCF Done:  E(RHF) =  -7.71438286852     A.U. after    7 cycles
 SCF Done:  E(RHF) =  -7.71407540556     A.U. after    7 cycles
 SCF Done:  E(RHF) =  -7.71377530767     A.U. after    7 cycles
 SCF Done:  E(RHF) =  -7.71348221761     A.U. after    7 cycles
 SCF Done:  E(RHF) =  -7.71319580680     A.U. after    7 cycles
 SCF Done:  E(RHF) =  -7.71291577251     A.U. after    7 cycles

                         Standard orientation:
 ---------------------------------------------------------------------
 Center     Atomic      Atomic             Coordinates (Angstroms)
 Number     Number       Type             X           Y           Z
 ---------------------------------------------------------------------
      1          3           0        0.000000    0.000000    2.625000
      2          1           0        0.000000    0.000000   -7.875000
 ---------------------------------------------------------------------

 SCF Done:  E(RHF) =  -7.71264183546     A.U. after    7 cycles
 Normal termination of Gaussian 16 at Mon Feb 10 20:10:20 2020.
