 Gaussian 16, Revision C.01,
 Gaussian 16:  ES64L-G16RevC.01  3-Jul-2019

 ------------------------------------------
 # rhf/3-21g guess=tcheck geom=connectivity
 ------------------------------------------

 -----------
 RHF for LiH
 -----------
 Symbolic Z-matrix:
 Charge =  0 Multiplicity = 1

                         Standard orientation:
 ---------------------------------------------------------------------
 Center     Atomic      Atomic             Coordinates (Angstroms)
 Number     Number       Type             X           Y           Z
 ---------------------------------------------------------------------
      1          3           0        0.000000    0.000000    0.382500
      2          1           0        0.000000    0.000000   -1.147500
 ---------------------------------------------------------------------

 SCF Done:  E(RHF) =  -7.92819770053     A.U. after    9 cycles

 The electronic state is 1-SG.
 Alpha  occ. eigenvalues --   -2.42016  -0.30240
 Alpha virt. eigenvalues --    0.00466   0.05025   0.05025   0.12826   0.18746
 Alpha virt. eigenvalues --    0.22267   0.22267   0.38253   1.44843

 Mulliken charges:
               1
     1  Li   0.214917
     2  H   -0.214917
 Sum of Mulliken charges =   0.00000

 Dipole moment (field-independent basis, Debye):
    X=              0.0000    Y=              0.0000    Z=              5.7571  Tot=              5.7571
 Quadrupole moment (field-independent basis, Debye-Ang):
   XX=             -5.4734   YY=             -5.4734   ZZ=             -6.9067
   XY=              0.0000   XZ=              0.0000   YZ=              0.0000

 Normal termination of Gaussian 16 at Mon Feb 10 19:46:55 2020.
